<VTKFile type="UnstructuredGrid" version="1.0">
<UnstructuredGrid>
<Piece NumberOfPoints="6" NumberOfCells="2">
<Points>
<DataArray type="Float64" NumberOfComponents="3" format="ascii">
1 1 0
1 -1 0
-1 -1 0
-1 1 0
3 1 0
3 -1 0
</DataArray>
</Points>
<PointData Scalars="scalar_field" Vectors="vector_field" >
<DataArray type="Float64" Name="scalar_field" NumberOfComponents="1" format="ascii">
0
1
2
3
4
5
</DataArray>
<DataArray type="Float64" Name="vector_field" NumberOfComponents="3" format="ascii">
1 1 0
1 -1 0
-1 -1 0
-1 1 0
3 1 0
3 -1 0
</DataArray>
</PointData>
<Cells>
<DataArray type="Int64" Name="connectivity" format="ascii">
0 1 2 3
0 4 5 1
</DataArray>
<DataArray type="Int8" Name="types" format="ascii" RangeMin="9" RangeMax="9">
9
9
</DataArray>
<DataArray type="Int64" Name="offsets" format="ascii" RangeMin="4" RangeMax="8">
4
8
</DataArray>
</Cells>
<CellData Scalars="cell_scalar_field" Vectors="cell_vector_field" >
<DataArray type="Float64" Name="cell_scalar_field" NumberOfComponents="1" format="ascii">
1
2
</DataArray>
<DataArray type="Float64" Name="cell_vector_field" NumberOfComponents="3" format="ascii">
1 0 0
0 1 0
</DataArray>
</CellData>
</Piece>
</UnstructuredGrid>
</VTKFile>
